# vtk DataFile Version 3.0

ASCII
DATASET POLYDATA

POINTS 10 double
0 0 0
1 0 0
2 0 0
0 1 1
1 1 1
2 1 1
0 1 1
1 1 1
0 2 0
1 2 0

POLYGONS 6 24
3 0 1 4
3 0 3 4
3 1 2 5
3 1 5 4
3 6 7 9
3 6 8 9

POINT_DATA 10
color_scalars colorscalars 4
1.000000 0.000000 0.000000 1.000000
1.000000 0.000000 0.000000 1.000000
1.000000 0.000000 0.000000 1.000000
1.000000 0.000000 0.000000 1.000000
0.000000 1.000000 0.000000 1.000000
0.000000 1.000000 0.000000 1.000000
0.000000 1.000000 0.000000 1.000000
0.000000 1.000000 0.000000 1.000000
0.000000 1.000000 0.000000 1.000000
0.000000 1.000000 0.000000 1.000000
