# vtk DataFile Version 3.0

ASCII
DATASET POLYDATA

POINTS 8 double
0 0 0
1 0 0
0 1 0
1 1 0
1 0 0
2 0 0
1 1 0
2 1 0

POLYGONS 4 16
3 0 1 3
3 0 3 2
3 4 5 7
3 4 6 7


POINT_DATA 8
SCALARS colorids float
LOOKUP_TABLE default
0.1 0.2 0.3 0.4 0.5 0.6 0.7 0.8

