# vtk DataFile Version 3.0

ASCII
DATASET POLYDATA

POINTS 28 double
0.000000 0.000000 0
0.100000 0.000000 0
0.000000 0.100000 0
0.100000 0.100000 0
0.100000 0.000000 0
0.200000 0.000000 0
0.100000 0.100000 0
0.200000 0.100000 0
0.200000 0.000000 0
0.300000 0.000000 0
0.200000 0.100000 0
0.300000 0.100000 0
0.300000 0.000000 0
0.400000 0.000000 0
0.300000 0.100000 0
0.400000 0.100000 0
0.400000 0.000000 0
0.500000 0.000000 0
0.400000 0.100000 0
0.500000 0.100000 0
0.500000 0.000000 0
0.600000 0.000000 0
0.500000 0.100000 0
0.600000 0.100000 0
0.600000 0.000000 0
0.700000 0.000000 0
0.600000 0.100000 0
0.700000 0.100000 0
POLYGONS 14 56
3 0 1 3
3 0 2 3
3 4 5 7
3 4 6 7
3 8 9 11
3 8 10 11
3 12 13 15
3 12 14 15
3 16 17 19
3 16 18 19
3 20 21 23
3 20 22 23
3 24 25 27
3 24 26 27
POINT_DATA 28
SCALARS colorids float
LOOKUP_TABLE default
0.1 0.1 0.1 0.1 0.2 0.2 0.2 0.2 0.3 0.3 0.3 0.3 0.5 0.5 0.5 0.5 0.9 0.9 0.9 0.9 0.7 0.7 0.7 0.7 1 1 1 1 