# vtk DataFile Version 3.0

ASCII
DATASET POLYDATA

POINTS 54 double
0.000000 0.000000 0
0.100000 0.000000 0
0.200000 0.000000 0
0.000000 0.100000 0
0.100000 0.100000 0
0.200000 0.100000 0
0.200000 0.000000 0
0.300000 0.000000 0
0.400000 0.000000 0
0.200000 0.100000 0
0.300000 0.100000 0
0.400000 0.100000 0
0.200000 0.100000 0
0.300000 0.100000 0
0.400000 0.100000 0
0.200000 0.200000 0
0.300000 0.200000 0
0.400000 0.200000 0
0.200000 0.200000 0
0.400000 0.200000 0
0.200000 0.210000 0
0.400000 0.210000 0
0.400000 0.000000 0
0.500000 0.000000 0
0.600000 0.000000 0
0.400000 0.100000 0
0.500000 0.100000 0
0.600000 0.100000 0
0.400000 0.100000 0
0.500000 0.100000 0
0.600000 0.100000 0
0.400000 0.200000 0
0.500000 0.200000 0
0.600000 0.200000 0
0.400000 0.200000 0
0.500000 0.200000 0
0.600000 0.200000 0
0.400000 0.300000 0
0.500000 0.300000 0
0.600000 0.300000 0
0.400000 0.300000 0
0.600000 0.300000 0
0.400000 0.310000 0
0.600000 0.310000 0
0.400000 0.310000 0
0.500000 0.310000 0
0.600000 0.310000 0
0.400000 0.410000 0
0.500000 0.410000 0
0.600000 0.410000 0
0.400000 0.410000 0
0.600000 0.410000 0
0.400000 0.420000 0
0.600000 0.420000 0
POLYGONS 34 136
3 0 1 4
3 0 3 4
3 1 2 5
3 1 4 5
3 6 7 10
3 6 9 10
3 7 8 11
3 7 10 11
3 12 13 16
3 12 15 16
3 13 14 17
3 13 16 17
3 18 19 21
3 18 20 21
3 22 23 26
3 22 25 26
3 23 24 27
3 23 26 27
3 28 29 32
3 28 31 32
3 29 30 33
3 29 32 33
3 34 35 38
3 34 37 38
3 35 36 39
3 35 38 39
3 40 41 43
3 40 42 43
3 44 45 48
3 44 47 48
3 45 46 49
3 45 48 49
3 50 51 53
3 50 52 53
POINT_DATA 54
SCALARS colorids float
LOOKUP_TABLE default
0.3 0.3 0.3 0.3 0.3 0.3 0.3 0.1 0.1 0.3 0.1 0.1 0.3 0.1 0.1 0.3 0.1 0.1 0 0 0 0 0.1 0.6 0.6 0.1 0.6 0.6 0.1 0.5 0.5 0.1 0.5 0.5 0.1 0.2 0.2 0.1 0.2 0.2 0 0 0 0 0.1 0.7 0.7 0.1 0.7 0.7 0 0 0 0 