# vtk DataFile Version 3.0

ASCII
DATASET POLYDATA

POINTS 42 double
0.000000 0.000000 0
0.100000 0.000000 0
0.200000 0.000000 0
0.000000 0.100000 0
0.100000 0.100000 0
0.200000 0.100000 0
0.200000 0.000000 0
0.300000 0.000000 0
0.400000 0.000000 0
0.200000 0.100000 0
0.300000 0.100000 0
0.400000 0.100000 0
0.200000 0.100000 0
0.300000 0.100000 0
0.400000 0.100000 0
0.200000 0.200000 0
0.300000 0.200000 0
0.400000 0.200000 0
0.400000 0.000000 0
0.500000 0.000000 0
0.600000 0.000000 0
0.400000 0.100000 0
0.500000 0.100000 0
0.600000 0.100000 0
0.400000 0.100000 0
0.500000 0.100000 0.1
0.600000 0.100000 0
0.400000 0.200000 0
0.500000 0.200000 0.1
0.600000 0.200000 0
0.400000 0.200000 0
0.500000 0.200000 0
0.600000 0.200000 0
0.400000 0.300000 0
0.500000 0.300000 0
0.600000 0.300000 0
0.400000 0.300000 0
0.500000 0.300000 0
0.600000 0.300000 0
0.400000 0.400000 0
0.500000 0.400000 0
0.600000 0.400000 0
POLYGONS 28 112
3 0 1 4
3 0 3 4
3 1 2 5
3 1 4 5
3 6 7 10
3 6 9 10
3 7 8 11
3 7 10 11
3 12 13 16
3 12 15 16
3 13 14 17
3 13 16 17
3 18 19 22
3 18 21 22
3 19 20 23
3 19 22 23
3 24 25 28
3 24 27 28
3 25 26 29
3 25 28 29
3 30 31 34
3 30 33 34
3 31 32 35
3 31 34 35
3 36 37 40
3 36 39 40
3 37 38 41
3 37 40 41
POINT_DATA 42
SCALARS colorids float
LOOKUP_TABLE default
0.3 0.3 0.3 0.3 0.3 0.3 0.3 0.1 0.1 0.3 0.1 0.1 0.3 1 1 0.3 1 1 0.1 0.6 0.6 0.1 0.6 0.6 0.1 0.5 0.5 0.1 0.5 0.5 0.1 0.2 0.2 0.1 0.2 0.2 1 0.7 0.7 1 0.7 0.7 